-- The following file was written from MATLAB using the MRST toolbox.

SPECGRID
50 30 10 1 F
/

COORD
     0.000000     0.000000     0.050000     0.000000     0.000000     0.550000
     0.018000     0.000000     0.041456     0.020000     0.000000     0.540501
     0.036000     0.000000     0.032860     0.040000     0.000000     0.530954
     0.054000     0.000000     0.024321     0.060000     0.000000     0.521505
     0.072000     0.000000     0.015943     0.080000     0.000000     0.512298
     0.090000     0.000000     0.007828     0.100000     0.000000     0.503469
     0.108000     0.000000     0.000073     0.120000     0.000000     0.495148
     0.126000     0.000000    -0.007232     0.140000     0.000000     0.487453
     0.144000     0.000000    -0.014001     0.160000     0.000000     0.480491
     0.162000     0.000000    -0.020161     0.180000     0.000000     0.474354
     0.180000     0.000000    -0.025646     0.200000     0.000000     0.469122
     0.198000     0.000000    -0.030398     0.220000     0.000000     0.464854
     0.216000     0.000000    -0.034372     0.240000     0.000000     0.461596
     0.234000     0.000000    -0.037534     0.260000     0.000000     0.459375
     0.252000     0.000000    -0.039862     0.280000     0.000000     0.458200
     0.270000     0.000000    -0.041343     0.300000     0.000000     0.458060
     0.288000     0.000000    -0.041979     0.320000     0.000000     0.458929
     0.306000     0.000000    -0.041783     0.340000     0.000000     0.460763
     0.324000     0.000000    -0.040779     0.360000     0.000000     0.463500
     0.342000     0.000000    -0.039003     0.380000     0.000000     0.467065
     0.360000     0.000000    -0.036500     0.400000     0.000000     0.471367
     0.378000     0.000000    -0.033326     0.420000     0.000000     0.476303
     0.396000     0.000000    -0.029548     0.440000     0.000000     0.481760
     0.414000     0.000000    -0.025238     0.460000     0.000000     0.487615
     0.432000     0.000000    -0.020478     0.480000     0.000000     0.493740
     0.450000     0.000000    -0.015355     0.500000     0.000000     0.500000
     0.472000     0.000000    -0.008734     0.520000     0.000000     0.506260
     0.494000     0.000000    -0.001884     0.540000     0.000000     0.512385
     0.516000     0.000000     0.005015     0.560000     0.000000     0.518240
     0.538000     0.000000     0.011783     0.580000     0.000000     0.523697
     0.560000     0.000000     0.018240     0.600000     0.000000     0.528633
     0.582000     0.000000     0.024216     0.620000     0.000000     0.532935
     0.604000     0.000000     0.029548     0.640000     0.000000     0.536500
     0.626000     0.000000     0.034086     0.660000     0.000000     0.539237
     0.648000     0.000000     0.037698     0.680000     0.000000     0.541071
     0.670000     0.000000     0.040271     0.700000     0.000000     0.541940
     0.692000     0.000000     0.041711     0.720000     0.000000     0.541800
     0.714000     0.000000     0.041950     0.740000     0.000000     0.540625
     0.736000     0.000000     0.040943     0.760000     0.000000     0.538404
     0.758000     0.000000     0.038673     0.780000     0.000000     0.535146
     0.780000     0.000000     0.035146     0.800000     0.000000     0.530878
     0.802000     0.000000     0.030398     0.820000     0.000000     0.525646
     0.824000     0.000000     0.024488     0.840000     0.000000     0.519509
     0.846000     0.000000     0.017503     0.860000     0.000000     0.512547
     0.868000     0.000000     0.009551     0.880000     0.000000     0.504852
     0.890000     0.000000     0.000763     0.900000     0.000000     0.496531
     0.912000     0.000000    -0.008713     0.920000     0.000000     0.487702
     0.934000     0.000000    -0.018711     0.940000     0.000000     0.478495
     0.956000     0.000000    -0.029052     0.960000     0.000000     0.469046
     0.978000     0.000000    -0.039546     0.980000     0.000000     0.459499
     1.000000     0.000000    -0.050000     1.000000     0.000000     0.450000
     0.000000     0.033333     0.042160     0.000000     0.033333     0.542160
     0.018000     0.033333     0.033713     0.020000     0.033333     0.532775
     0.036000     0.033333     0.025312     0.040000     0.033333     0.523463
     0.054000     0.033333     0.017065     0.060000     0.033333     0.514367
     0.072000     0.033333     0.009071     0.080000     0.033333     0.505626
     0.090000     0.033333     0.001429     0.100000     0.033333     0.497368
     0.108000     0.033333    -0.005772     0.120000     0.033333     0.489714
     0.126000     0.033333    -0.012448     0.140000     0.033333     0.482772
     0.144000     0.033333    -0.018522     0.160000     0.033333     0.476637
     0.162000     0.033333    -0.023929     0.180000     0.033333     0.471388
     0.180000     0.033333    -0.028612     0.200000     0.033333     0.467090
     0.198000     0.033333    -0.032525     0.220000     0.033333     0.463789
     0.216000     0.033333    -0.035633     0.240000     0.033333     0.461514
     0.234000     0.033333    -0.037912     0.260000     0.033333     0.460278
     0.252000     0.033333    -0.039352     0.280000     0.033333     0.460072
     0.270000     0.033333    -0.039953     0.300000     0.033333     0.460873
     0.288000     0.033333    -0.039726     0.320000     0.033333     0.462639
     0.306000     0.033333    -0.038696     0.340000     0.033333     0.465311
     0.324000     0.033333    -0.036897     0.360000     0.033333     0.468814
     0.342000     0.033333    -0.034375     0.380000     0.033333     0.473061
     0.360000     0.033333    -0.031186     0.400000     0.033333     0.477951
     0.378000     0.033333    -0.027394     0.420000     0.033333     0.483371
     0.396000     0.033333    -0.023073     0.440000     0.033333     0.489200
     0.414000     0.033333    -0.018304     0.460000     0.033333     0.495310
     0.432000     0.033333    -0.013173     0.480000     0.033333     0.501569
     0.450000     0.033333    -0.007772     0.500000     0.033333     0.507840
     0.472000     0.033333    -0.000944     0.520000     0.033333     0.513987
     0.494000     0.033333     0.005965     0.540000     0.033333     0.519876
     0.516000     0.033333     0.012774     0.560000     0.033333     0.525378
     0.538000     0.033333     0.019303     0.580000     0.033333     0.530369
     0.560000     0.033333     0.025378     0.600000     0.033333     0.534734
     0.582000     0.033333     0.030835     0.620000     0.033333     0.538368
     0.604000     0.033333     0.035522     0.640000     0.033333     0.541180
     0.626000     0.033333     0.039302     0.660000     0.033333     0.543091
     0.648000     0.033333     0.042056     0.680000     0.033333     0.544037
     0.670000     0.033333     0.043688     0.700000     0.033333     0.543972
     0.692000     0.033333     0.044121     0.720000     0.033333     0.542866
     0.714000     0.033333     0.043308     0.740000     0.033333     0.540707
     0.736000     0.033333     0.041223     0.760000     0.033333     0.537501
     0.758000     0.033333     0.037868     0.780000     0.033333     0.533273
     0.780000     0.033333     0.033273     0.800000     0.033333     0.528065
     0.802000     0.033333     0.027492     0.820000     0.033333     0.521936
     0.824000     0.033333     0.020606     0.840000     0.033333     0.514962
     0.846000     0.033333     0.012718     0.860000     0.033333     0.507233
     0.868000     0.033333     0.003954     0.880000     0.033333     0.498856
     0.890000     0.033333    -0.005540     0.900000     0.033333     0.489947
     0.912000     0.033333    -0.015601     0.920000     0.033333     0.480635
     0.934000     0.033333    -0.026052     0.940000     0.033333     0.471055
     0.956000     0.033333    -0.036706     0.960000     0.033333     0.461350
     0.978000     0.033333    -0.047368     0.980000     0.033333     0.451669
     1.000000     0.033333    -0.057840     1.000000     0.033333     0.442160
     0.000000     0.066667     0.034407     0.000000     0.066667     0.534407
     0.018000     0.066667     0.026147     0.020000     0.066667     0.525236
     0.036000     0.066667     0.018032     0.040000     0.066667     0.516258
     0.054000     0.066667     0.010162     0.060000     0.066667     0.507610
     0.072000     0.066667     0.002634     0.080000     0.066667     0.499423
     0.090000     0.066667    -0.004460     0.100000     0.066667     0.491817
     0.108000     0.066667    -0.011037     0.120000     0.066667     0.484903
     0.126000     0.066667    -0.017022     0.140000     0.066667     0.478776
     0.144000     0.066667    -0.022347     0.160000     0.066667     0.473519
     0.162000     0.066667    -0.026956     0.180000     0.066667     0.469198
     0.180000     0.066667    -0.030802     0.200000     0.066667     0.465862
     0.198000     0.066667    -0.033850     0.220000     0.066667     0.463542
     0.216000     0.066667    -0.036076     0.240000     0.066667     0.462253
     0.234000     0.066667    -0.037469     0.260000     0.066667     0.461990
     0.252000     0.066667    -0.038027     0.280000     0.066667     0.462731
     0.270000     0.066667    -0.037763     0.300000     0.066667     0.464437
     0.288000     0.066667    -0.036699     0.320000     0.066667     0.467052
     0.306000     0.066667    -0.034871     0.340000     0.066667     0.470502
     0.324000     0.066667    -0.032323     0.360000     0.066667     0.474703
     0.342000     0.066667    -0.029110     0.380000     0.066667     0.479554
     0.360000     0.066667    -0.025297     0.400000     0.066667     0.484946
     0.378000     0.066667    -0.020957     0.420000     0.066667     0.490757
     0.396000     0.066667    -0.016170     0.440000     0.066667     0.496861
     0.414000     0.066667    -0.011023     0.460000     0.066667     0.503126
     0.432000     0.066667    -0.005607     0.480000     0.066667     0.509415
     0.450000     0.066667    -0.000018     0.500000     0.066667     0.515593
     0.472000     0.066667     0.006905     0.520000     0.066667     0.521525
     0.494000     0.066667     0.013760     0.540000     0.066667     0.527081
     0.516000     0.066667     0.020365     0.560000     0.066667     0.532135
     0.538000     0.066667     0.026546     0.580000     0.066667     0.536572
     0.560000     0.066667     0.032135     0.600000     0.066667     0.540285
     0.582000     0.066667     0.036978     0.620000     0.066667     0.543180
     0.604000     0.066667     0.040932     0.640000     0.066667     0.545176
     0.626000     0.066667     0.043877     0.660000     0.066667     0.546208
     0.648000     0.066667     0.045708     0.680000     0.066667     0.546227
     0.670000     0.066667     0.046347     0.700000     0.066667     0.545200
     0.692000     0.066667     0.045738     0.720000     0.066667     0.543112
     0.714000     0.066667     0.043850     0.740000     0.066667     0.539968
     0.736000     0.066667     0.040681     0.760000     0.066667     0.535789
     0.758000     0.066667     0.036252     0.780000     0.066667     0.530614
     0.780000     0.066667     0.030614     0.800000     0.066667     0.524501
     0.802000     0.066667     0.023841     0.820000     0.066667     0.517523
     0.824000     0.066667     0.016032     0.840000     0.066667     0.509770
     0.846000     0.066667     0.007308     0.860000     0.066667     0.501345
     0.868000     0.066667    -0.002188     0.880000     0.066667     0.492363
     0.890000     0.066667    -0.012297     0.900000     0.066667     0.482952
     0.912000     0.066667    -0.022844     0.920000     0.066667     0.473248
     0.934000     0.066667    -0.033643     0.940000     0.066667     0.463393
     0.956000     0.066667    -0.044500     0.960000     0.066667     0.453535
     0.978000     0.066667    -0.055217     0.980000     0.066667     0.443823
     1.000000     0.066667    -0.065593     1.000000     0.066667     0.434407
     0.000000     0.100000     0.026824     0.000000     0.100000     0.526824
     0.018000     0.100000     0.018842     0.020000     0.100000     0.517968
     0.036000     0.100000     0.011098     0.040000     0.100000     0.509419
     0.054000     0.100000     0.003687     0.060000     0.100000     0.501308
     0.072000     0.100000    -0.003298     0.080000     0.100000     0.493757
     0.090000     0.100000    -0.009774     0.100000     0.100000     0.486877
     0.108000     0.100000    -0.015665     0.120000     0.100000     0.480766
     0.126000     0.100000    -0.020904     0.140000     0.100000     0.475508
     0.144000     0.100000    -0.025435     0.160000     0.100000     0.471172
     0.162000     0.100000    -0.029209     0.180000     0.100000     0.467808
     0.180000     0.100000    -0.032192     0.200000     0.100000     0.465451
     0.198000     0.100000    -0.034359     0.220000     0.100000     0.464117
     0.216000     0.100000    -0.035698     0.240000     0.100000     0.463805
     0.234000     0.100000    -0.036208     0.260000     0.100000     0.464494
     0.252000     0.100000    -0.035900     0.280000     0.100000     0.466148
     0.270000     0.100000    -0.034796     0.300000     0.100000     0.468713
     0.288000     0.100000    -0.032932     0.320000     0.100000     0.472119
     0.306000     0.100000    -0.030350     0.340000     0.100000     0.476281
     0.324000     0.100000    -0.027106     0.360000     0.100000     0.481102
     0.342000     0.100000    -0.023265     0.380000     0.100000     0.486473
     0.360000     0.100000    -0.018898     0.400000     0.100000     0.492275
     0.378000     0.100000    -0.014086     0.420000     0.100000     0.498381
     0.396000     0.100000    -0.008914     0.440000     0.100000     0.504660
     0.414000     0.100000    -0.003475     0.460000     0.100000     0.510976
     0.432000     0.100000     0.002136     0.480000     0.100000     0.517193
     0.450000     0.100000     0.007822     0.500000     0.100000     0.523176
     0.472000     0.100000     0.014727     0.520000     0.100000     0.528794
     0.494000     0.100000     0.021414     0.540000     0.100000     0.533920
     0.516000     0.100000     0.027706     0.560000     0.100000     0.538438
     0.538000     0.100000     0.033433     0.580000     0.100000     0.542238
     0.560000     0.100000     0.038438     0.600000     0.100000     0.545225
     0.582000     0.100000     0.042575     0.620000     0.100000     0.547317
     0.604000     0.100000     0.045718     0.640000     0.100000     0.548444
     0.626000     0.100000     0.047759     0.660000     0.100000     0.548556
     0.648000     0.100000     0.048613     0.680000     0.100000     0.547617
     0.670000     0.100000     0.048219     0.700000     0.100000     0.545611
     0.692000     0.100000     0.046542     0.720000     0.100000     0.542537
     0.714000     0.100000     0.043571     0.740000     0.100000     0.538416
     0.736000     0.100000     0.039323     0.760000     0.100000     0.533285
     0.758000     0.100000     0.033842     0.780000     0.100000     0.527197
     0.780000     0.100000     0.027197     0.800000     0.100000     0.520225
     0.802000     0.100000     0.019483     0.820000     0.100000     0.512456
     0.824000     0.100000     0.010815     0.840000     0.100000     0.503991
     0.846000     0.100000     0.001333     0.860000     0.100000     0.494946
     0.868000     0.100000    -0.008808     0.880000     0.100000     0.485445
     0.890000     0.100000    -0.019435     0.900000     0.100000     0.475623
     0.912000     0.100000    -0.030364     0.920000     0.100000     0.465624
     0.934000     0.100000    -0.041402     0.940000     0.100000     0.455595
     0.956000     0.100000    -0.052350     0.960000     0.100000     0.445685
     0.978000     0.100000    -0.063007     0.980000     0.100000     0.436045
     1.000000     0.100000    -0.073176     1.000000     0.100000     0.426824
     0.000000     0.133333     0.019495     0.000000     0.133333     0.519495
     0.018000     0.133333     0.011877     0.020000     0.133333     0.511049
     0.036000     0.133333     0.004586     0.040000     0.133333     0.503020
     0.054000     0.133333    -0.002287     0.060000     0.133333     0.495529
     0.072000     0.133333    -0.008660     0.080000     0.133333     0.488689
     0.090000     0.133333    -0.014454     0.100000     0.133333     0.482601
     0.108000     0.133333    -0.019605     0.120000     0.133333     0.477349
     0.126000     0.133333    -0.024052     0.140000     0.133333     0.473004
     0.144000     0.133333    -0.027751     0.160000     0.133333     0.469620
     0.162000     0.133333    -0.030664     0.180000     0.133333     0.467233
     0.180000     0.133333    -0.032767     0.200000     0.133333     0.465862
     0.198000     0.133333    -0.034047     0.220000     0.133333     0.465507
     0.216000     0.133333    -0.034503     0.240000     0.133333     0.466152
     0.234000     0.133333    -0.034144     0.260000     0.133333     0.467762
     0.252000     0.133333    -0.032995     0.280000     0.133333     0.470285
     0.270000     0.133333    -0.031087     0.300000     0.133333     0.473653
     0.288000     0.133333    -0.028465     0.320000     0.133333     0.477785
     0.306000     0.133333    -0.025183     0.340000     0.133333     0.482583
     0.324000     0.133333    -0.021306     0.360000     0.133333     0.487941
     0.342000     0.133333    -0.016904     0.380000     0.133333     0.493741
     0.360000     0.133333    -0.012059     0.400000     0.133333     0.499857
     0.378000     0.133333    -0.006855     0.420000     0.133333     0.506159
     0.396000     0.133333    -0.001385     0.440000     0.133333     0.512510
     0.414000     0.133333     0.004257     0.460000     0.133333     0.518774
     0.432000     0.133333     0.009972     0.480000     0.133333     0.524817
     0.450000     0.133333     0.015661     0.500000     0.133333     0.530505
     0.472000     0.133333     0.022435     0.520000     0.133333     0.535712
     0.494000     0.133333     0.028844     0.540000     0.133333     0.540319
     0.516000     0.133333     0.034715     0.560000     0.133333     0.544216
     0.538000     0.133333     0.039889     0.580000     0.133333     0.547305
     0.560000     0.133333     0.044216     0.600000     0.133333     0.549501
     0.582000     0.133333     0.047566     0.620000     0.133333     0.550734
     0.604000     0.133333     0.049827     0.640000     0.133333     0.550948
     0.626000     0.133333     0.050907     0.660000     0.133333     0.550108
     0.648000     0.133333     0.050740     0.680000     0.133333     0.548192
     0.670000     0.133333     0.049285     0.700000     0.133333     0.545200
     0.692000     0.133333     0.046525     0.720000     0.133333     0.541147
     0.714000     0.133333     0.042473     0.740000     0.133333     0.536069
     0.736000     0.133333     0.037164     0.760000     0.133333     0.530017
     0.758000     0.133333     0.030664     0.780000     0.133333     0.523061
     0.780000     0.133333     0.023061     0.800000     0.133333     0.515285
     0.802000     0.133333     0.014466     0.820000     0.133333     0.506790
     0.824000     0.133333     0.005015     0.840000     0.133333     0.497689
     0.846000     0.133333    -0.005141     0.860000     0.133333     0.488106
     0.868000     0.133333    -0.015832     0.880000     0.133333     0.478176
     0.890000     0.133333    -0.026875     0.900000     0.133333     0.468041
     0.912000     0.133333    -0.038078     0.920000     0.133333     0.457847
     0.934000     0.133333    -0.049243     0.940000     0.133333     0.447745
     0.956000     0.133333    -0.060168     0.960000     0.133333     0.437887
     0.978000     0.133333    -0.070654     0.980000     0.133333     0.428421
     1.000000     0.133333    -0.080505     1.000000     0.133333     0.419495
     0.000000     0.166667     0.012500     0.000000     0.166667     0.512500
     0.018000     0.166667     0.005329     0.020000     0.166667     0.504556
     0.036000     0.166667    -0.001431     0.040000     0.166667     0.497131
     0.054000     0.166667    -0.007697     0.060000     0.166667     0.490337
     0.072000     0.166667    -0.013393     0.080000     0.166667     0.484277
     0.090000     0.166667    -0.018451     0.100000     0.166667     0.479037
     0.108000     0.166667    -0.022813     0.120000     0.166667     0.474690
     0.126000     0.166667    -0.026431     0.140000     0.166667     0.471292
     0.144000     0.166667    -0.029270     0.160000     0.166667     0.468881
     0.162000     0.166667    -0.031305     0.180000     0.166667     0.467479
     0.180000     0.166667    -0.032521     0.200000     0.166667     0.467090
     0.198000     0.166667    -0.032917     0.220000     0.166667     0.467697
     0.216000     0.166667    -0.032503     0.240000     0.166667     0.469270
     0.234000     0.166667    -0.031300     0.260000     0.166667     0.471758
     0.252000     0.166667    -0.029343     0.280000     0.166667     0.475097
     0.270000     0.166667    -0.026674     0.300000     0.166667     0.479204
     0.288000     0.166667    -0.023348     0.320000     0.166667     0.483988
     0.306000     0.166667    -0.019427     0.340000     0.166667     0.489340
     0.324000     0.166667    -0.014984     0.360000     0.166667     0.495146
     0.342000     0.166667    -0.010097     0.380000     0.166667     0.501280
     0.360000     0.166667    -0.004854     0.400000     0.166667     0.507611
     0.378000     0.166667     0.000655     0.420000     0.166667     0.514005
     0.396000     0.166667     0.006336     0.440000     0.166667     0.520325
     0.414000     0.166667     0.012089     0.460000     0.166667     0.526436
     0.432000     0.166667     0.017815     0.480000     0.166667     0.532203
     0.450000     0.166667     0.023415     0.500000     0.166667     0.537500
     0.472000     0.166667     0.029946     0.520000     0.166667     0.542205
     0.494000     0.166667     0.035968     0.540000     0.166667     0.546208
     0.516000     0.166667     0.041317     0.560000     0.166667     0.549408
     0.538000     0.166667     0.045842     0.580000     0.166667     0.551718
     0.560000     0.166667     0.049408     0.600000     0.166667     0.553065
     0.582000     0.166667     0.051897     0.620000     0.166667     0.553393
     0.604000     0.166667     0.053214     0.640000     0.166667     0.552661
     0.626000     0.166667     0.053286     0.660000     0.166667     0.550847
     0.648000     0.166667     0.052066     0.680000     0.166667     0.547946
     0.670000     0.166667     0.049531     0.700000     0.166667     0.543972
     0.692000     0.166667     0.045688     0.720000     0.166667     0.538957
     0.714000     0.166667     0.040568     0.740000     0.166667     0.532951
     0.736000     0.166667     0.034229     0.760000     0.166667     0.526021
     0.758000     0.166667     0.026753     0.780000     0.166667     0.518249
     0.780000     0.166667     0.018249     0.800000     0.166667     0.509734
     0.802000     0.166667     0.008846     0.820000     0.166667     0.500587
     0.824000     0.166667    -0.001307     0.840000     0.166667     0.490932
     0.846000     0.166667    -0.012044     0.860000     0.166667     0.480902
     0.868000     0.166667    -0.023184     0.880000     0.166667     0.470637
     0.890000     0.166667    -0.034536     0.900000     0.166667     0.460287
     0.912000     0.166667    -0.045903     0.920000     0.166667     0.450000
     0.934000     0.166667    -0.057081     0.940000     0.166667     0.439929
     0.956000     0.166667    -0.067870     0.960000     0.166667     0.430225
     0.978000     0.166667    -0.078073     0.980000     0.166667     0.421035
     1.000000     0.166667    -0.087500     1.000000     0.166667     0.412500
     0.000000     0.200000     0.005916     0.000000     0.200000     0.505916
     0.018000     0.200000    -0.000730     0.020000     0.200000     0.498560
     0.036000     0.200000    -0.006888     0.040000     0.200000     0.491817
     0.054000     0.200000    -0.012483     0.060000     0.200000     0.485790
     0.072000     0.200000    -0.017445     0.080000     0.200000     0.480567
     0.090000     0.200000    -0.021719     0.100000     0.200000     0.476224
     0.108000     0.200000    -0.025254     0.120000     0.200000     0.472817
     0.126000     0.200000    -0.028015     0.140000     0.200000     0.470389
     0.144000     0.200000    -0.029976     0.160000     0.200000     0.468963
     0.162000     0.200000    -0.031124     0.180000     0.200000     0.468545
     0.180000     0.200000    -0.031455     0.200000     0.200000     0.469122
     0.198000     0.200000    -0.030980     0.220000     0.200000     0.470664
     0.216000     0.200000    -0.029720     0.240000     0.200000     0.473124
     0.234000     0.200000    -0.027707     0.260000     0.200000     0.476439
     0.252000     0.200000    -0.024985     0.280000     0.200000     0.480530
     0.270000     0.200000    -0.021607     0.300000     0.200000     0.485305
     0.288000     0.200000    -0.017636     0.320000     0.200000     0.490660
     0.306000     0.200000    -0.013144     0.340000     0.200000     0.496478
     0.324000     0.200000    -0.008210     0.360000     0.200000     0.502637
     0.342000     0.200000    -0.002919     0.380000     0.200000     0.509006
     0.360000     0.200000     0.002637     0.400000     0.200000     0.515451
     0.378000     0.200000     0.008364     0.420000     0.200000     0.521834
     0.396000     0.200000     0.014162     0.440000     0.200000     0.528021
     0.414000     0.200000     0.019934     0.460000     0.200000     0.533876
     0.432000     0.200000     0.025579     0.480000     0.200000     0.539271
     0.450000     0.200000     0.030998     0.500000     0.200000     0.544084
     0.472000     0.200000     0.037176     0.520000     0.200000     0.548202
     0.494000     0.200000     0.042708     0.540000     0.200000     0.551522
     0.516000     0.200000     0.047439     0.560000     0.200000     0.553956
     0.538000     0.200000     0.051228     0.580000     0.200000     0.555428
     0.560000     0.200000     0.053956     0.600000     0.200000     0.555878
     0.582000     0.200000     0.055519     0.620000     0.200000     0.555265
     0.604000     0.200000     0.055842     0.640000     0.200000     0.553563
     0.626000     0.200000     0.054870     0.660000     0.200000     0.550764
     0.648000     0.200000     0.052575     0.680000     0.200000     0.546880
     0.670000     0.200000     0.048957     0.700000     0.200000     0.541940
     0.692000     0.200000     0.044040     0.720000     0.200000     0.535991
     0.714000     0.200000     0.037878     0.740000     0.200000     0.529097
     0.736000     0.200000     0.030548     0.760000     0.200000     0.521340
     0.758000     0.200000     0.022152     0.780000     0.200000     0.512815
     0.780000     0.200000     0.012815     0.800000     0.200000     0.503633
     0.802000     0.200000     0.002683     0.820000     0.200000     0.493915
     0.824000     0.200000    -0.008081     0.840000     0.200000     0.483794
     0.846000     0.200000    -0.019300     0.860000     0.200000     0.473410
     0.868000     0.200000    -0.030784     0.880000     0.200000     0.462911
     0.890000     0.200000    -0.042335     0.900000     0.200000     0.452447
     0.912000     0.200000    -0.053751     0.920000     0.200000     0.442171
     0.934000     0.200000    -0.064830     0.940000     0.200000     0.432234
     0.956000     0.200000    -0.075371     0.960000     0.200000     0.422785
     0.978000     0.200000    -0.085183     0.980000     0.200000     0.413967
     1.000000     0.200000    -0.094084     1.000000     0.200000     0.405916
     0.000000     0.233333    -0.000185     0.000000     0.233333     0.499815
     0.018000     0.233333    -0.006234     0.020000     0.233333     0.493127
     0.036000     0.233333    -0.011726     0.040000     0.233333     0.487137
     0.054000     0.233333    -0.016592     0.060000     0.233333     0.481936
     0.072000     0.233333    -0.020773     0.080000     0.233333     0.477601
     0.090000     0.233333    -0.024223     0.100000     0.233333     0.474192
     0.108000     0.233333    -0.026902     0.120000     0.233333     0.471752
     0.126000     0.233333    -0.028787     0.140000     0.233333     0.470307
     0.144000     0.233333    -0.029861     0.160000     0.233333     0.469866
     0.162000     0.233333    -0.030124     0.180000     0.233333     0.470417
     0.180000     0.233333    -0.029583     0.200000     0.233333     0.471935
     0.198000     0.233333    -0.028259     0.220000     0.233333     0.474373
     0.216000     0.233333    -0.026185     0.240000     0.233333     0.477671
     0.234000     0.233333    -0.023404     0.260000     0.233333     0.481753
     0.252000     0.233333    -0.019968     0.280000     0.233333     0.486526
     0.270000     0.233333    -0.015941     0.300000     0.233333     0.491889
     0.288000     0.233333    -0.011393     0.320000     0.233333     0.497728
     0.306000     0.233333    -0.006404     0.340000     0.233333     0.503919
     0.324000     0.233333    -0.001058     0.360000     0.233333     0.510333
     0.342000     0.233333     0.004552     0.380000     0.233333     0.516836
     0.360000     0.233333     0.010333     0.400000     0.233333     0.523290