SPECGRID
 4 4 3 1 F /

COORD
 0.00 0.00 0.00  0.00 0.00 30.00
 100.00 0.00 0.00  100.00 0.00 30.00
 200.00 0.00 0.00  200.00 0.00 30.00
 300.00 0.00 0.00  300.00 0.00 30.00
 400.00 0.00 0.00  400.00 0.00 30.00
 0.00 100.00 0.00  0.00 100.00 30.00
 100.00 100.00 0.00  100.00 100.00 30.00
 200.00 100.00 0.00  200.00 100.00 30.00
 300.00 100.00 0.00  300.00 100.00 30.00
 400.00 100.00 0.00  400.00 100.00 30.00
 0.00 200.00 0.00  0.00 200.00 30.00
 100.00 200.00 0.00  100.00 200.00 30.00
 200.00 200.00 0.00  200.00 200.00 30.00
 300.00 200.00 0.00  300.00 200.00 30.00
 400.00 200.00 0.00  400.00 200.00 30.00
 0.00 300.00 0.00  0.00 300.00 30.00
 100.00 300.00 0.00  100.00 300.00 30.00
 200.00 300.00 0.00  200.00 300.00 30.00
 300.00 300.00 0.00  300.00 300.00 30.00
 400.00 300.00 0.00  400.00 300.00 30.00
 0.00 400.00 0.00  0.00 400.00 30.00
 100.00 400.00 0.00  100.00 400.00 30.00
 200.00 400.00 0.00  200.00 400.00 30.00
 300.00 400.00 0.00  300.00 400.00 30.00
 400.00 400.00 0.00  400.00 400.00 30.00
/

ZCORN
 0.00 0.00 0.00 0.00
 0.00 0.00 0.00 0.00
 0.00 0.00 0.00 0.00
 0.00 0.00 0.00 0.00
 0.00 0.00 0.00 0.00
 0.00 0.00 0.00 0.00
 0.00 0.00 0.00 0.00
 0.00 0.00 0.00 0.00
 0.00 0.00 0.00 0.00
 0.00 0.00 0.00 0.00
 0.00 0.00 0.00 0.00
 0.00 0.00 0.00 0.00
 0.00 0.00 0.00 0.00
 0.00 0.00 0.00 0.00
 0.00 0.00 0.00 0.00
 0.00 0.00 0.00 0.00
 10.00 10.00 10.00 10.00
 10.00 10.00 10.00 10.00
 10.00 10.00 10.00 10.00
 10.00 10.00 10.00 10.00
 10.00 10.00 10.00 10.00
 10.00 10.00 10.00 10.00
 10.00 10.00 10.00 10.00
 10.00 10.00 10.00 10.00
 10.00 10.00 10.00 10.00
 10.00 10.00 10.00 10.00
 10.00 10.00 10.00 10.00
 10.00 10.00 10.00 10.00
 10.00 10.00 10.00 10.00
 10.00 10.00 10.00 10.00
 10.00 10.00 10.00 10.00
 10.00 10.00 10.00 10.00
 10.00 10.00 10.00 10.00
 10.00 10.00 10.00 10.00
 10.00 10.00 10.00 10.00
 10.00 10.00 10.00 10.00
 10.00 10.00 10.00 10.00
 10.00 10.00 10.00 10.00
 10.00 10.00 10.00 10.00
 10.00 10.00 10.00 10.00
 10.00 10.00 10.00 10.00
 10.00 10.00 10.00 10.00
 10.00 10.00 10.00 10.00
 10.00 10.00 10.00 10.00
 10.00 10.00 10.00 10.00
 10.00 10.00 10.00 10.00
 10.00 10.00 10.00 10.00
 10.00 10.00 10.00 10.00
 20.00 20.00 20.00 20.00
 20.00 20.00 20.00 20.00
 20.00 20.00 20.00 20.00
 20.00 20.00 20.00 20.00
 20.00 20.00 20.00 20.00
 20.00 20.00 20.00 20.00
 20.00 20.00 20.00 20.00
 20.00 20.00 20.00 20.00
 20.00 20.00 20.00 20.00
 20.00 20.00 20.00 20.00
 20.00 20.00 20.00 20.00
 20.00 20.00 20.00 20.00
 20.00 20.00 20.00 20.00
 20.00 20.00 20.00 20.00
 20.00 20.00 20.00 20.00
 20.00 20.00 20.00 20.00
 20.00 20.00 20.00 20.00
 20.00 20.00 20.00 20.00
 20.00 20.00 20.00 20.00
 20.00 20.00 20.00 20.00
 20.00 20.00 20.00 20.00
 20.00 20.00 20.00 20.00
 20.00 20.00 20.00 20.00
 20.00 20.00 20.00 20.00
 20.00 20.00 20.00 20.00
 20.00 20.00 20.00 20.00
 20.00 20.00 20.00 20.00
 20.00 20.00 20.00 20.00
 20.00 20.00 20.00 20.00
 20.00 20.00 20.00 20.00
 20.00 20.00 20.00 20.00
 20.00 20.00 20.00 20.00
 30.00 30.00 30.00 30.00
 30.00 30.00 30.00 30.00
 30.00 30.00 30.00 30.00
 30.00 30.00 30.00 30.00
 30.00 30.00 30.00 30.00
 30.00 30.00 30.00 30.00
 30.00 30.00 30.00 30.00
 30.00 30.00 30.00 30.00
 30.00 30.00 30.00 30.00
 30.00 30.00 30.00 30.00
 30.00 30.00 30.00 30.00
 30.00 30.00 30.00 30.00
 30.00 30.00 30.00 30.00
 30.00 30.00 30.00 30.00
 30.00 30.00 30.00 30.00
 30.00 30.00 30.00 30.00
/

ACTNUM
 48*1 /
